# vtk DataFile Version 1.0
Cube
ASCII

DATASET POLYDATA
POINTS 648 float
7.515658 7.515658 0.000000
7.515658 7.515658 26.343000
8.340194 6.403983 24.967895
7.818602 5.352898 24.533236
8.482446 4.689054 23.366241
9.628367 5.252794 22.799866
10.015609 6.006204 23.187109
18.827342 7.515658 0.000000
18.827342 7.515658 26.343000
19.939017 8.340194 24.967895
20.990102 7.818602 24.533236
21.653946 8.482446 23.366241
21.090206 9.628367 22.799866
20.336796 10.015609 23.187109
18.827342 18.827342 0.000000
18.827342 18.827342 26.343000
18.002806 19.939017 24.967895
18.524398 20.990102 24.533236
17.860554 21.653946 23.366241
16.714633 21.090206 22.799866
16.327391 20.336796 23.187109
7.515658 18.827342 0.000000
7.515658 18.827342 26.343000
6.403983 18.002806 24.967895
5.352898 18.524398 24.533236
4.689054 17.860554 23.366241
5.252794 16.714633 22.799866
6.006204 16.327391 23.187109
8.340194 19.939017 1.375105
7.818602 20.990102 1.809764
8.482446 21.653946 2.976759
9.628367 21.090206 3.543133
10.015609 20.336796 3.155891
6.403983 8.340194 1.375105
5.352898 7.818602 1.809764
4.689054 8.482446 2.976759
5.252794 9.628366 3.543133
6.006204 10.015609 3.155891
18.002806 6.403983 1.375105
18.524398 5.352898 1.809764
17.860554 4.689054 2.976759
16.714633 5.252794 3.543133
16.327391 6.006204 3.155891
19.939017 18.002806 1.375105
20.990102 18.524398 1.809764
21.653946 17.860554 2.976759
21.090206 16.714633 3.543133
20.336796 16.327391 3.155891
0.000000 7.515658 7.515658
26.343000 7.515658 7.515658
24.967895 8.340194 6.403983
24.533236 7.818602 5.352898
23.366241 8.482446 4.689054
22.799866 9.628366 5.252794
23.187109 10.015609 6.006204
18.827342 0.000000 7.515658
18.827342 26.343000 7.515658
18.002806 24.967895 6.403983
18.524398 24.533236 5.352898
17.860554 23.366241 4.689054
16.714633 22.799866 5.252794
16.327391 23.187109 6.006204
0.000000 18.827342 7.515658
26.343000 18.827342 7.515658
1.375105 18.002806 6.403983
1.809764 18.524398 5.352898
2.976759 17.860554 4.689054
3.543134 16.714633 5.252794
3.155891 16.327391 6.006204
7.515658 0.000000 7.515658
7.515658 26.343000 7.515658
8.340194 1.375105 6.403983
7.818602 1.809764 5.352898
8.482446 2.976759 4.689054
9.628366 3.543133 5.252794
10.015609 3.155891 6.006204
0.000000 18.827342 18.827342
26.343000 18.827342 18.827342
24.967895 18.002806 19.939017
24.533236 18.524398 20.990102
23.366241 17.860554 21.653946
22.799866 16.714633 21.090206
23.187109 16.327391 20.336796
7.515658 0.000000 18.827342
7.515658 26.343000 18.827342
8.340194 24.967895 19.939017
7.818602 24.533236 20.990102
8.482446 23.366241 21.653946
9.628367 22.799866 21.090206
10.015609 23.187109 20.336796
0.000000 7.515658 18.827342
26.343000 7.515658 18.827342
1.375105 8.340194 19.939017
1.809764 7.818602 20.990102
2.976759 8.482446 21.653946
3.543133 9.628367 21.090206
3.155891 10.015609 20.336796
18.827342 0.000000 18.827342
18.827342 26.343000 18.827342
18.002806 1.375105 19.939017
18.524398 1.809764 20.990102
17.860554 2.976759 21.653946
16.714633 3.543133 21.090206
16.327391 3.155891 20.336796
6.403983 24.967895 8.340194
5.352898 24.533236 7.818602
4.689054 23.366241 8.482446
5.252794 22.799866 9.628366
6.006204 23.187109 10.015609
6.403983 1.375105 18.002806
5.352898 1.809764 18.524398
4.689054 2.976759 17.860554
5.252794 3.543133 16.714633
6.006204 3.155891 16.327391
24.967895 6.403983 18.002806
24.533236 5.352898 18.524398
23.366241 4.689054 17.860554
22.799866 5.252794 16.714633
23.187109 6.006204 16.327391
19.939017 24.967895 18.002806
20.990102 24.533236 18.524398
21.653946 23.366241 17.860554
21.090206 22.799866 16.714633
20.336796 23.187109 16.327391
1.375105 19.939017 18.002806
1.809764 20.990102 18.524398
2.976759 21.653946 17.860554
3.543134 21.090206 16.714633
3.155891 20.336796 16.327391
19.939017 1.375105 8.340194
20.990102 1.809764 7.818602
21.653946 2.976759 8.482446
21.090206 3.543133 9.628366
20.336796 3.155891 10.015609
24.967895 19.939017 8.340194
24.533236 20.990102 7.818602
23.366241 21.653946 8.482446
22.799866 21.090206 9.628366
23.187109 20.336796 10.015609
1.375105 6.403983 8.340194
1.809764 5.352898 7.818602
2.976759 4.689054 8.482446
3.543133 5.252794 9.628366
3.155891 6.006204 10.015609
18.002806 19.939017 1.375105
18.524398 20.990102 1.809764
17.860554 21.653946 2.976759
16.714633 21.090206 3.543133
16.327391 20.336796 3.155891
6.403983 18.002806 1.375105
5.352898 18.524398 1.809764
4.689054 17.860554 2.976759
5.252794 16.714633 3.543133
6.006204 16.327391 3.155891
8.340194 6.403983 1.375105
7.818602 5.352898 1.809764
8.482446 4.689054 2.976759
9.628366 5.252794 3.543133
10.015609 6.006204 3.155891
19.939017 8.340194 1.375105
20.990102 7.818602 1.809764
21.653946 8.482446 2.976759
21.090206 9.628366 3.543133
20.336796 10.015609 3.155891
18.002806 6.403983 24.967895
18.524398 5.352898 24.533236
17.860554 4.689054 23.366241
16.714633 5.252794 22.799866
16.327391 6.006204 23.187109
19.939017 18.002806 24.967895
20.990102 18.524398 24.533236
21.653946 17.860554 23.366241
21.090206 16.714633 22.799866
20.336796 16.327391 23.187109
8.340194 19.939017 24.967895
7.818602 20.990102 24.533236
8.482446 21.653946 23.366241
9.628367 21.090206 22.799866
10.015609 20.336796 23.187109
6.403983 8.340194 24.967895
5.352898 7.818602 24.533236
4.689054 8.482446 23.366241
5.252794 9.628367 22.799866
6.006204 10.015609 23.187109
1.375105 18.002806 19.939017
1.809764 18.524398 20.990102
2.976759 17.860554 21.653946
3.543134 16.714633 21.090206
3.155891 16.327391 20.336796
8.340194 1.375105 19.939017
7.818602 1.809764 20.990102
8.482446 2.976759 21.653946
9.628367 3.543133 21.090206
10.015609 3.155891 20.336796
24.967895 8.340194 19.939017
24.533236 7.818602 20.990102
23.366241 8.482446 21.653946
22.799866 9.628367 21.090206
23.187109 10.015609 20.336796
18.002806 24.967895 19.939017
18.524398 24.533236 20.990102
17.860554 23.366241 21.653946
16.714633 22.799866 21.090206
16.327391 23.187109 20.336796
1.375105 8.340194 6.403983
1.809764 7.818602 5.352898
2.976759 8.482446 4.689054
3.543133 9.628366 5.252794
3.155891 10.015609 6.006204
18.002806 1.375105 6.403983
18.524398 1.809764 5.352898
17.860554 2.976759 4.689054
16.714633 3.543133 5.252794
16.327391 3.155891 6.006204
24.967895 18.002806 6.403983
24.533236 18.524398 5.352898
23.366241 17.860554 4.689054
22.799866 16.714633 5.252794
23.187109 16.327391 6.006204
8.340194 24.967895 6.403983
7.818602 24.533236 5.352898
8.482446 23.366241 4.689054
9.628367 22.799866 5.252794
10.015609 23.187109 6.006204
19.939017 1.375105 18.002806
20.990102 1.809764 18.524398
21.653946 2.976759 17.860554
21.090206 3.543133 16.714633
20.336796 3.155891 16.327391
19.939017 24.967895 8.340194
20.990102 24.533236 7.818602
21.653946 23.366241 8.482446
21.090206 22.799866 9.628366
20.336796 23.187109 10.015609
1.375105 19.939017 8.340194
1.809764 20.990102 7.818602
2.976759 21.653946 8.482446
3.543133 21.090206 9.628366
3.155891 20.336796 10.015609
6.403983 1.375105 8.340194
5.352898 1.809764 7.818602
4.689054 2.976759 8.482446
5.252794 3.543133 9.628366
6.006204 3.155891 10.015609
24.967895 6.403983 8.340194
24.533236 5.352898 7.818602
23.366241 4.689054 8.482446
22.799866 5.252794 9.628366
23.187109 6.006204 10.015609
6.403983 24.967895 18.002806
5.352898 24.533236 18.524398
4.689054 23.366241 17.860554
5.252794 22.799866 16.714633
6.006204 23.187109 16.327391
1.375105 6.403983 18.002806
1.809764 5.352898 18.524398
2.976759 4.689054 17.860554
3.543134 5.252794 16.714633
3.155891 6.006204 16.327391
24.967895 19.939017 18.002806
24.533236 20.990102 18.524398
23.366241 21.653946 17.860554
22.799866 21.090206 16.714633
23.187109 20.336796 16.327391
7.515658 20.687158 13.171500
8.340194 19.575483 11.796395
7.818602 18.524398 11.361736
8.482446 17.860554 10.194741
9.628367 18.424294 9.628366
10.015609 19.177704 10.015609
18.827342 20.687158 13.171500
19.939017 21.511694 11.796395
20.990102 20.990102 11.361736
21.653946 21.653946 10.194741
18.827342 5.655842 13.171500
18.002806 6.767517 11.796395
18.524398 7.818602 11.361736
17.860554 8.482446 10.194741
16.714633 7.918706 9.628366
16.327391 7.165296 10.015609
7.515658 5.655842 13.171500
6.403983 4.831306 11.796395
5.352898 5.352898 11.361736
4.689054 4.689054 10.194741
8.340194 6.767517 14.546605
7.818602 7.818602 14.981264
8.482446 8.482446 16.148259
9.628367 7.918706 16.714633
10.015609 7.165296 16.327391
6.403983 21.511694 14.546605
5.352898 20.990102 14.981264
4.689054 21.653946 16.148259
18.002806 19.575483 14.546605
18.524398 18.524398 14.981264
17.860554 17.860554 16.148259
16.714633 18.424294 16.714633
16.327391 19.177704 16.327391
19.939017 4.831306 14.546605
20.990102 5.352898 14.981264
21.653946 4.689054 16.148259
0.000000 20.687158 20.687158
26.343000 20.687158 20.687158
24.967895 21.511694 19.575483
22.799866 22.799866 18.424294
23.187109 23.187109 19.177704
18.827342 13.171500 20.687158
18.002806 11.796395 19.575483
18.524398 11.361736 18.524398
17.860554 10.194741 17.860554
16.714633 9.628366 18.424294
16.327391 10.015609 19.177704
0.000000 5.655842 20.687158
26.343000 5.655842 20.687158
1.375105 4.831306 19.575483
3.543133 3.543134 18.424294
3.155891 3.155891 19.177704
7.515658 13.171500 20.687158
8.340194 14.546605 19.575483
7.818602 14.981264 18.524398
8.482446 16.148259 17.860554
9.628367 16.714633 18.424294
10.015609 16.327391 19.177704
0.000000 5.655842 5.655842
26.343000 5.655842 5.655842
24.967895 4.831306 6.767517
22.799866 3.543133 7.918706
23.187109 3.155891 7.165296
7.515658 13.171500 5.655842
8.340194 11.796395 6.767517
7.818602 11.361736 7.818602
8.482446 10.194741 8.482446
9.628366 9.628366 7.918706
10.015609 10.015609 7.165296
0.000000 20.687158 5.655842
26.343000 20.687158 5.655842
1.375105 21.511694 6.767517
3.543133 22.799866 7.918706
3.155891 23.187109 7.165296
18.827342 13.171500 5.655842
18.002806 14.546605 6.767517
18.524398 14.981264 7.818602
17.860554 16.148259 8.482446
16.714633 16.714633 7.918706
16.327391 16.327391 7.165296
6.403983 11.796395 21.511694
5.352898 11.361736 20.990102
4.689054 10.194741 21.653946
6.403983 14.546605 4.831306
5.352898 14.981264 5.352898
4.689054 16.148259 4.689054
24.967895 19.575483 4.831306
22.799866 18.424294 3.543133
23.187109 19.177704 3.155891
19.939017 11.796395 4.831306
20.990102 11.361736 5.352898
21.653946 10.194741 4.689054
1.375105 6.767517 4.831306
3.543133 7.918706 3.543133
3.155891 7.165296 3.155891
19.939017 14.546605 21.511694
20.990102 14.981264 20.990102
21.653946 16.148259 21.653946
24.967895 6.767517 21.511694
22.799866 7.918706 22.799866
23.187109 7.165296 23.187109
1.375105 19.575483 21.511694
3.543134 18.424294 22.799866
3.155891 19.177704 23.187109
18.002806 6.767517 14.546605
18.524398 7.818602 14.981264
17.860554 8.482446 16.148259
16.714633 7.918706 16.714633
16.327391 7.165296 16.327391
6.403983 4.831306 14.546605
5.352898 5.352898 14.981264
4.689054 4.689054 16.148259
8.340194 19.575483 14.546605
7.818602 18.524398 14.981264
8.482446 17.860554 16.148259
9.628367 18.424294 16.714633
10.015609 19.177704 16.327391
19.939017 21.511694 14.546605
20.990102 20.990102 14.981264
21.653946 21.653946 16.148259
18.002806 19.575483 11.796395
18.524398 18.524398 11.361736
17.860554 17.860554 10.194741
16.714633 18.424294 9.628366
16.327391 19.177704 10.015609
19.939017 4.831306 11.796395
20.990102 5.352898 11.361736
21.653946 4.689054 10.194741
8.340194 6.767517 11.796395
7.818602 7.818602 11.361736
8.482446 8.482446 10.194741
9.628366 7.918706 9.628366
10.015609 7.165296 10.015609
6.403983 21.511694 11.796395
5.352898 20.990102 11.361736
4.689054 21.653946 10.194741
1.375105 4.831306 6.767517
3.543133 3.543133 7.918706
3.155891 3.155891 7.165296
8.340194 14.546605 6.767517
7.818602 14.981264 7.818602
8.482446 16.148259 8.482446
9.628367 16.714633 7.918706
10.015609 16.327391 7.165296
24.967895 21.511694 6.767517
22.799866 22.799866 7.918706
23.187109 23.187109 7.165296
18.002806 11.796395 6.767517
18.524398 11.361736 7.818602
17.860554 10.194741 8.482446
16.714633 9.628366 7.918706
16.327391 10.015609 7.165296
1.375105 21.511694 19.575483
3.543134 22.799866 18.424294
3.155891 23.187109 19.177704
18.002806 14.546605 19.575483
18.524398 14.981264 18.524398
17.860554 16.148259 17.860554
16.714633 16.714633 18.424294
16.327391 16.327391 19.177704
24.967895 4.831306 19.575483
22.799866 3.543134 18.424294
23.187109 3.155891 19.177704
8.340194 11.796395 19.575483
7.818602 11.361736 18.524398
8.482446 10.194741 17.860554
9.628367 9.628366 18.424294
10.015609 10.015609 19.177704
19.939017 14.546605 4.831306
20.990102 14.981264 5.352898
21.653946 16.148259 4.689054
19.939017 11.796395 21.511694
20.990102 11.361736 20.990102
21.653946 10.194741 21.653946
1.375105 6.767517 21.511694
3.543133 7.918706 22.799866
3.155891 7.165296 23.187109
6.403983 14.546605 21.511694
5.352898 14.981264 20.990102
4.689054 16.148259 21.653946
24.967895 19.575483 21.511694
22.799866 18.424294 22.799866
23.187109 19.177704 23.187109
6.403983 11.796395 4.831306
5.352898 11.361736 5.352898
4.689054 10.194741 4.689054
1.375105 19.575483 4.831306
3.543133 18.424294 3.543133
3.155891 19.177704 3.155891
24.967895 6.767517 4.831306
22.799866 7.918706 3.543133
23.187109 7.165296 3.155891
20.687158 7.515658 13.171500
21.511694 6.403983 11.796395
5.655842 7.515658 13.171500
6.767517 8.340194 11.796395
7.918706 9.628366 9.628366
7.165296 10.015609 10.015609
5.655842 18.827342 13.171500
4.831306 19.939017 11.796395
20.687158 18.827342 13.171500
19.575483 18.002806 11.796395
18.424294 16.714633 9.628366
19.177704 16.327391 10.015609
21.511694 19.939017 14.546605
19.575483 8.340194 14.546605
18.424294 9.628367 16.714633
19.177704 10.015609 16.327391
4.831306 6.403983 14.546605
6.767517 18.002806 14.546605
7.918706 16.714633 16.714633
7.165296 16.327391 16.327391
13.171500 7.515658 20.687158
11.796395 8.340194 19.575483
11.361736 7.818602 18.524398
10.194741 8.482446 17.860554
5.655842 0.000000 20.687158
5.655842 26.343000 20.687158
4.831306 24.967895 19.575483
13.171500 18.827342 20.687158
14.546605 18.002806 19.575483
14.981264 18.524398 18.524398
16.148259 17.860554 17.860554
20.687158 0.000000 20.687158
20.687158 26.343000 20.687158
21.511694 1.375105 19.575483
13.171500 18.827342 5.655842
11.796395 18.002806 6.767517
11.361736 18.524398 7.818602
10.194741 17.860554 8.482446
20.687158 0.000000 5.655842
20.687158 26.343000 5.655842
21.511694 24.967895 6.767517
13.171500 7.515658 5.655842
14.546605 8.340194 6.767517
14.981264 7.818602 7.818602
16.148259 8.482446 8.482446
5.655842 0.000000 5.655842
5.655842 26.343000 5.655842
4.831306 1.375105 6.767517
19.575483 24.967895 21.511694
18.424294 22.799866 22.799866
19.177704 23.187109 23.187109
19.575483 1.375105 4.831306
18.424294 3.543133 3.543133
19.177704 3.155891 3.155891
11.796395 6.403983 4.831306
11.361736 5.352898 5.352898
10.194741 4.689054 4.689054
6.767517 24.967895 4.831306
7.918706 22.799866 3.543133
7.165296 23.187109 3.155891
14.546605 19.939017 4.831306
14.981264 20.990102 5.352898
16.148259 21.653946 4.689054
6.767517 1.375105 21.511694
7.918706 3.543133 22.799866
7.165296 3.155891 23.187109
11.796395 19.939017 21.511694
11.361736 20.990102 20.990102
10.194741 21.653946 21.653946
14.546605 6.403983 21.511694
14.981264 5.352898 20.990102
16.148259 4.689054 21.653946
4.831306 19.939017 14.546605
19.575483 18.002806 14.546605
18.424294 16.714633 16.714633
19.177704 16.327391 16.327391
21.511694 6.403983 14.546605
6.767517 8.340194 14.546605
7.918706 9.628367 16.714633
7.165296 10.015609 16.327391
4.831306 6.403983 11.796395
6.767517 18.002806 11.796395
7.918706 16.714633 9.628366
7.165296 16.327391 10.015609
21.511694 19.939017 11.796395
19.575483 8.340194 11.796395
18.424294 9.628366 9.628366
19.177704 10.015609 10.015609
14.546605 18.002806 6.767517
14.981264 18.524398 7.818602
16.148259 17.860554 8.482446
21.511694 1.375105 6.767517
11.796395 8.340194 6.767517
11.361736 7.818602 7.818602
10.194741 8.482446 8.482446
4.831306 24.967895 6.767517
14.546605 8.340194 19.575483
14.981264 7.818602 18.524398
16.148259 8.482446 17.860554
4.831306 1.375105 19.575483
11.796395 18.002806 19.575483
11.361736 18.524398 18.524398
10.194741 17.860554 17.860554
21.511694 24.967895 19.575483
6.767517 1.375105 4.831306
7.918706 3.543133 3.543133
7.165296 3.155891 3.155891
6.767517 24.967895 21.511694
7.918706 22.799866 22.799866
7.165296 23.187109 23.187109
14.546605 19.939017 21.511694
14.981264 20.990102 20.990102
16.148259 21.653946 21.653946
19.575483 1.375105 21.511694
18.424294 3.543133 22.799866
19.177704 3.155891 23.187109
11.796395 6.403983 21.511694
11.361736 5.352898 20.990102
10.194741 4.689054 21.653946
19.575483 24.967895 4.831306
18.424294 22.799866 3.543133
19.177704 23.187109 3.155891
14.546605 6.403983 4.831306
14.981264 5.352898 5.352898
16.148259 4.689054 4.689054
11.796395 19.939017 4.831306
11.361736 20.990102 5.352898
10.194741 21.653946 4.689054
20.687158 20.687158 0.000000
20.687158 20.687158 26.343000
21.511694 19.575483 24.967895
5.655842 20.687158 0.000000
5.655842 20.687158 26.343000
6.767517 21.511694 24.967895
5.655842 5.655842 0.000000
5.655842 5.655842 26.343000
4.831306 6.767517 24.967895
20.687158 5.655842 0.000000
20.687158 5.655842 26.343000
19.575483 4.831306 24.967895
21.511694 6.767517 1.375105
19.575483 21.511694 1.375105
4.831306 19.575483 1.375105
6.767517 4.831306 1.375105
13.171500 20.687158 7.515658
11.796395 21.511694 6.403983
5.655842 13.171500 7.515658
4.831306 11.796395 6.403983
13.171500 5.655842 7.515658
14.546605 4.831306 6.403983
20.687158 13.171500 7.515658
21.511694 14.546605 6.403983
13.171500 5.655842 18.827342
11.796395 4.831306 19.939017
20.687158 13.171500 18.827342
21.511694 11.796395 19.939017
13.171500 20.687158 18.827342
14.546605 21.511694 19.939017
5.655842 13.171500 18.827342
4.831306 14.546605 19.939017
19.575483 11.796395 8.340194
19.575483 14.546605 18.002806
11.796395 19.575483 18.002806
6.767517 11.796395 18.002806
14.546605 6.767517 18.002806
6.767517 14.546605 8.340194
11.796395 6.767517 8.340194
14.546605 19.575483 8.340194
4.831306 6.767517 1.375105
19.575483 4.831306 1.375105
21.511694 19.575483 1.375105
6.767517 21.511694 1.375105
4.831306 19.575483 24.967895
6.767517 4.831306 24.967895
21.511694 6.767517 24.967895
19.575483 21.511694 24.967895
14.546605 4.831306 19.939017
21.511694 14.546605 19.939017
11.796395 21.511694 19.939017
4.831306 11.796395 19.939017
14.546605 21.511694 6.403983
4.831306 14.546605 6.403983
11.796395 4.831306 6.403983
21.511694 11.796395 6.403983
6.767517 14.546605 18.002806
6.767517 11.796395 8.340194
14.546605 6.767517 8.340194
19.575483 14.546605 8.340194
11.796395 19.575483 8.340194
19.575483 11.796395 18.002806
14.546605 19.575483 18.002806
11.796395 6.767517 18.002806
POINT_DATA 648
SCALARS my_scalars float
LOOKUP_TABLE default
1.4
1.4
1.52
1.7
1.7
1.7
1.09
1.4
1.4
1.52
1.7
1.7
1.7
1.09
1.4
1.4
1.52
1.7
1.7
1.7
1.09
1.4
1.4
1.52
1.7
1.7
1.7
1.09
1.52
1.7
1.7
1.7
1.09
1.52
1.7
1.7
1.7
1.09
1.52
1.7
1.7
1.7
1.09
1.52
1.7
1.7
1.7
1.09
1.4
1.4
1.52
1.7
1.7
1.7
1.09
1.4
1.4
1.52
1.7
1.7
1.7
1.09
1.4
1.4
1.52
1.7
1.7
1.7
1.09
1.4
1.4
1.52
1.7
1.7
1.7
1.09
1.4
1.4
1.52
1.7
1.7
1.7
1.09
1.4
1.4
1.52
1.7
1.7
1.7
1.09
1.4
1.4
1.52
1.7
1.7
1.7
1.09
1.4
1.4
1.52
1.7
1.7
1.7
1.09
1.52
1.7
1.7
1.7
1.09
1.52
1.7
1.7
1.7
1.09
1.52
1.7
1.7
1.7
1.09
1.52
1.7
1.7
1.7
1.09
1.52
1.7
1.7
1.7
1.09
1.52
1.7
1.7
1.7
1.09
1.52
1.7
1.7
1.7
1.09
1.52
1.7
1.7
1.7
1.09
1.52
1.7
1.7
1.7
1.09
1.52
1.7
1.7
1.7
1.09
1.52
1.7
1.7
1.7
1.09
1.52
1.7
1.7
1.7
1.09
1.52
1.7
1.7
1.7
1.09
1.52
1.7
1.7
1.7
1.09
1.52
1.7
1.7
1.7
1.09
1.52
1.7
1.7
1.7
1.09
1.52
1.7
1.7
1.7
1.09
1.52
1.7
1.7
1.7
1.09
1.52
1.7
1.7
1.7
1.09
1.52
1.7
1.7
1.7
1.09
1.52
1.7
1.7
1.7
1.09
1.52
1.7
1.7
1.7
1.09
1.52
1.7
1.7
1.7
1.09
1.52
1.7
1.7
1.7
1.09
1.52
1.7
1.7
1.7
1.09
1.52
1.7
1.7
1.7
1.09
1.52
1.7
1.7
1.7
1.09
1.52
1.7
1.7
1.7
1.09
1.52
1.7
1.7
1.7
1.09
1.52
1.7
1.7
1.7
1.09
1.52
1.7
1.7
1.7
1.09
1.52
1.7
1.7
1.7
1.09
1.4
1.52
1.7
1.7
1.7
1.09
1.4
1.52
1.7
1.7
1.4
1.52
1.7
1.7
1.7
1.09
1.4
1.52
1.7
1.7
1.52
1.7
1.7
1.7
1.09
1.52
1.7
1.7
1.52
1.7
1.7
1.7
1.09
1.52
1.7
1.7
1.4
1.4
1.52
1.7
1.09
1.4
1.52
1.7
1.7
1.7
1.09
1.4
1.4
1.52
1.7
1.09
1.4
1.52
1.7
1.7
1.7
1.09
1.4
1.4
1.52
1.7
1.09
1.4
1.52
1.7
1.7
1.7
1.09
1.4
1.4
1.52
1.7
1.09
1.4
1.52
1.7
1.7
1.7
1.09
1.52
1.7
1.7
1.52
1.7
1.7
1.52
1.7
1.09
1.52
1.7
1.7
1.52
1.7
1.09
1.52
1.7
1.7
1.52
1.7
1.09
1.52
1.7
1.09
1.52
1.7
1.7
1.7
1.09
1.52
1.7
1.7
1.52
1.7
1.7
1.7
1.09
1.52
1.7
1.7
1.52
1.7
1.7
1.7
1.09
1.52
1.7
1.7
1.52
1.7
1.7
1.7
1.09
1.52
1.7
1.7
1.52
1.7
1.09
1.52
1.7
1.7
1.7
1.09
1.52
1.7
1.09
1.52
1.7
1.7
1.7
1.09
1.52
1.7
1.09
1.52
1.7
1.7
1.7
1.09
1.52
1.7
1.09
1.52
1.7
1.7
1.7
1.09
1.52
1.7
1.7
1.52
1.7
1.7
1.52
1.7
1.09
1.52
1.7
1.7
1.52
1.7
1.09
1.52
1.7
1.7
1.52
1.7
1.09
1.52
1.7
1.09
1.4
1.52
1.4
1.52
1.7
1.09
1.4
1.52
1.4
1.52
1.7
1.09
1.52
1.52
1.7
1.09
1.52
1.52
1.7
1.09
1.4
1.52
1.7
1.7
1.4
1.4
1.52
1.4
1.52
1.7
1.7
1.4
1.4
1.52
1.4
1.52
1.7
1.7
1.4
1.4
1.52
1.4
1.52
1.7
1.7
1.4
1.4
1.52
1.52
1.7
1.09
1.52
1.7
1.09
1.52
1.7
1.7
1.52
1.7
1.09
1.52
1.7
1.7
1.52
1.7
1.09
1.52
1.7
1.7
1.52
1.7
1.7
1.52
1.52
1.7
1.09
1.52
1.52
1.7
1.09
1.52
1.52
1.7
1.09
1.52
1.52
1.7
1.09
1.52
1.7
1.7
1.52
1.52
1.7
1.7
1.52
1.52
1.7
1.7
1.52
1.52
1.7
1.7
1.52
1.52
1.7
1.09
1.52
1.7
1.09
1.52
1.7
1.7
1.52
1.7
1.09
1.52
1.7
1.7
1.52
1.7
1.09
1.52
1.7
1.7
1.52
1.7
1.7
1.4
1.4
1.52
1.4
1.4
1.52
1.4
1.4
1.52
1.4
1.4
1.52
1.52
1.52
1.52
1.52
1.4
1.52
1.4
1.52
1.4
1.52
1.4
1.52
1.4
1.52
1.4
1.52
1.4
1.52
1.4
1.52
1.52
1.52
1.52
1.52
1.52
1.52
1.52
1.52
1.52
1.52
1.52
1.52
1.52
1.52
1.52
1.52
1.52
1.52
1.52
1.52
1.52
1.52
1.52
1.52
1.52
1.52
1.52
1.52
1.52
1.52
1.52
1.52
VECTORS vectors float
0.4375 0 0
0.4375 0 0
0.03125 0 0
0.3125 0 0
0.3125 0 0
0.3125 0 0
0.25 0 0
0.4375 0 0
0.4375 0 0
0.03125 0 0
0.3125 0 0
0.3125 0 0
0.3125 0 0
0.25 0 0
0.4375 0 0
0.4375 0 0
0.03125 0 0
0.3125 0 0
0.3125 0 0
0.3125 0 0
0.25 0 0
0.4375 0 0
0.4375 0 0
0.03125 0 0
0.3125 0 0
0.3125 0 0
0.3125 0 0
0.25 0 0
0.03125 0 0
0.3125 0 0
0.3125 0 0
0.3125 0 0
0.25 0 0
0.03125 0 0
0.3125 0 0
0.3125 0 0
0.3125 0 0
0.25 0 0
0.03125 0 0
0.3125 0 0
0.3125 0 0
0.3125 0 0
0.25 0 0
0.03125 0 0
0.3125 0 0
0.3125 0 0
0.3125 0 0
0.25 0 0
0.4375 0 0
0.4375 0 0
0.03125 0 0
0.3125 0 0
0.3125 0 0
0.3125 0 0
0.25 0 0
0.4375 0 0
0.4375 0 0
0.03125 0 0
0.3125 0 0
0.3125 0 0
0.3125 0 0
0.25 0 0
0.4375 0 0
0.4375 0 0
0.03125 0 0
0.3125 0 0
0.3125 0 0
0.3125 0 0
0.25 0 0
0.4375 0 0
0.4375 0 0
0.03125 0 0
0.3125 0 0
0.3125 0 0
0.3125 0 0
0.25 0 0
0.4375 0 0
0.4375 0 0
0.03125 0 0
0.3125 0 0
0.3125 0 0
0.3125 0 0
0.25 0 0
0.4375 0 0
0.4375 0 0
0.03125 0 0
0.3125 0 0
0.3125 0 0
0.3125 0 0
0.25 0 0
0.4375 0 0
0.4375 0 0
0.03125 0 0
0.3125 0 0
0.3125 0 0
0.3125 0 0
0.25 0 0
0.4375 0 0
0.4375 0 0
0.03125 0 0
0.3125 0 0
0.3125 0 0
0.3125 0 0
0.25 0 0
0.03125 0 0
0.3125 0 0
0.3125 0 0
0.3125 0 0
0.25 0 0
0.03125 0 0
0.3125 0 0
0.3125 0 0
0.3125 0 0
0.25 0 0
0.03125 0 0
0.3125 0 0
0.3125 0 0
0.3125 0 0
0.25 0 0
0.03125 0 0
0.3125 0 0
0.3125 0 0
0.3125 0 0
0.25 0 0
0.03125 0 0
0.3125 0 0
0.3125 0 0
0.3125 0 0
0.25 0 0
0.03125 0 0
0.3125 0 0
0.3125 0 0
0.3125 0 0
0.25 0 0
0.03125 0 0
0.3125 0 0
0.3125 0 0
0.3125 0 0
0.25 0 0
0.03125 0 0
0.3125 0 0
0.3125 0 0
0.3125 0 0
0.25 0 0
0.03125 0 0
0.3125 0 0
0.3125 0 0
0.3125 0 0
0.25 0 0
0.03125 0 0
0.3125 0 0
0.3125 0 0
0.3125 0 0
0.25 0 0
0.03125 0 0
0.3125 0 0
0.3125 0 0
0.3125 0 0
0.25 0 0
0.03125 0 0
0.3125 0 0
0.3125 0 0
0.3125 0 0
0.25 0 0
0.03125 0 0
0.3125 0 0
0.3125 0 0
0.3125 0 0
0.25 0 0
0.03125 0 0
0.3125 0 0
0.3125 0 0
0.3125 0 0
0.25 0 0
0.03125 0 0
0.3125 0 0
0.3125 0 0
0.3125 0 0
0.25 0 0
0.03125 0 0
0.3125 0 0
0.3125 0 0
0.3125 0 0
0.25 0 0
0.03125 0 0
0.3125 0 0
0.3125 0 0
0.3125 0 0
0.25 0 0
0.03125 0 0
0.3125 0 0
0.3125 0 0
0.3125 0 0
0.25 0 0
0.03125 0 0
0.3125 0 0
0.3125 0 0
0.3125 0 0
0.25 0 0
0.03125 0 0
0.3125 0 0
0.3125 0 0
0.3125 0 0
0.25 0 0
0.03125 0 0
0.3125 0 0
0.3125 0 0
0.3125 0 0
0.25 0 0
0.03125 0 0
0.3125 0 0
0.3125 0 0
0.3125 0 0
0.25 0 0
0.03125 0 0
0.3125 0 0
0.3125 0 0
0.3125 0 0
0.25 0 0
0.03125 0 0
0.3125 0 0
0.3125 0 0
0.3125 0 0
0.25 0 0
0.03125 0 0
0.3125 0 0
0.3125 0 0
0.3125 0 0
0.25 0 0
0.03125 0 0
0.3125 0 0
0.3125 0 0
0.3125 0 0
0.25 0 0
0.03125 0 0
0.3125 0 0
0.3125 0 0
0.3125 0 0
0.25 0 0
0.03125 0 0
0.3125 0 0
0.3125 0 0
0.3125 0 0
0.25 0 0
0.03125 0 0
0.3125 0 0
0.3125 0 0
0.3125 0 0
0.25 0 0
0.03125 0 0
0.3125 0 0
0.3125 0 0
0.3125 0 0
0.25 0 0
0.03125 0 0
0.3125 0 0
0.3125 0 0
0.3125 0 0
0.25 0 0
0.03125 0 0
0.3125 0 0
0.3125 0 0
0.3125 0 0
0.25 0 0
0.4375 0 0
0.03125 0 0
0.3125 0 0
0.3125 0 0
0.3125 0 0
0.25 0 0
0.4375 0 0
0.03125 0 0
0.3125 0 0
0.3125 0 0
0.4375 0 0
0.03125 0 0
0.3125 0 0
0.3125 0 0
0.3125 0 0
0.25 0 0
0.4375 0 0
0.03125 0 0
0.3125 0 0
0.3125 0 0
0.03125 0 0
0.3125 0 0
0.3125 0 0
0.3125 0 0
0.25 0 0
0.03125 0 0
0.3125 0 0
0.3125 0 0
0.03125 0 0
0.3125 0 0
0.3125 0 0
0.3125 0 0
0.25 0 0
0.03125 0 0
0.3125 0 0
0.3125 0 0
0.4375 0 0
0.4375 0 0
0.03125 0 0
0.3125 0 0
0.25 0 0
0.4375 0 0
0.03125 0 0
0.3125 0 0
0.3125 0 0
0.3125 0 0
0.25 0 0
0.4375 0 0
0.4375 0 0
0.03125 0 0
0.3125 0 0
0.25 0 0
0.4375 0 0
0.03125 0 0
0.3125 0 0
0.3125 0 0
0.3125 0 0
0.25 0 0
0.4375 0 0
0.4375 0 0
0.03125 0 0
0.3125 0 0
0.25 0 0
0.4375 0 0
0.03125 0 0
0.3125 0 0
0.3125 0 0
0.3125 0 0
0.25 0 0
0.4375 0 0
0.4375 0 0
0.03125 0 0
0.3125 0 0
0.25 0 0
0.4375 0 0
0.03125 0 0
0.3125 0 0
0.3125 0 0
0.3125 0 0
0.25 0 0
0.03125 0 0
0.3125 0 0
0.3125 0 0
0.03125 0 0
0.3125 0 0
0.3125 0 0
0.03125 0 0
0.3125 0 0
0.25 0 0
0.03125 0 0
0.3125 0 0
0.3125 0 0
0.03125 0 0
0.3125 0 0
0.25 0 0
0.03125 0 0
0.3125 0 0
0.3125 0 0
0.03125 0 0
0.3125 0 0
0.25 0 0
0.03125 0 0
0.3125 0 0
0.25 0 0
0.03125 0 0
0.3125 0 0
0.3125 0 0
0.3125 0 0
0.25 0 0
0.03125 0 0
0.3125 0 0
0.3125 0 0
0.03125 0 0
0.3125 0 0
0.3125 0 0
0.3125 0 0
0.25 0 0
0.03125 0 0
0.3125 0 0
0.3125 0 0
0.03125 0 0
0.3125 0 0
0.3125 0 0
0.3125 0 0
0.25 0 0
0.03125 0 0
0.3125 0 0
0.3125 0 0
0.03125 0 0
0.3125 0 0
0.3125 0 0
0.3125 0 0
0.25 0 0
0.03125 0 0
0.3125 0 0
0.3125 0 0
0.03125 0 0
0.3125 0 0
0.25 0 0
0.03125 0 0
0.3125 0 0
0.3125 0 0
0.3125 0 0
0.25 0 0
0.03125 0 0
0.3125 0 0
0.25 0 0
0.03125 0 0
0.3125 0 0
0.3125 0 0
0.3125 0 0
0.25 0 0
0.03125 0 0
0.3125 0 0
0.25 0 0
0.03125 0 0
0.3125 0 0
0.3125 0 0
0.3125 0 0
0.25 0 0
0.03125 0 0
0.3125 0 0
0.25 0 0
0.03125 0 0
0.3125 0 0
0.3125 0 0
0.3125 0 0
0.25 0 0
0.03125 0 0
0.3125 0 0
0.3125 0 0
0.03125 0 0
0.3125 0 0
0.3125 0 0
0.03125 0 0
0.3125 0 0
0.25 0 0
0.03125 0 0
0.3125 0 0
0.3125 0 0
0.03125 0 0
0.3125 0 0
0.25 0 0
0.03125 0 0
0.3125 0 0
0.3125 0 0
0.03125 0 0
0.3125 0 0
0.25 0 0
0.03125 0 0
0.3125 0 0
0.25 0 0
0.4375 0 0
0.03125 0 0
0.4375 0 0
0.03125 0 0
0.3125 0 0
0.25 0 0
0.4375 0 0
0.03125 0 0
0.4375 0 0
0.03125 0 0
0.3125 0 0
0.25 0 0
0.03125 0 0
0.03125 0 0
0.3125 0 0
0.25 0 0
0.03125 0 0
0.03125 0 0
0.3125 0 0
0.25 0 0
0.4375 0 0
0.03125 0 0
0.3125 0 0
0.3125 0 0
0.4375 0 0
0.4375 0 0
0.03125 0 0
0.4375 0 0
0.03125 0 0
0.3125 0 0
0.3125 0 0
0.4375 0 0
0.4375 0 0
0.03125 0 0
0.4375 0 0
0.03125 0 0
0.3125 0 0
0.3125 0 0
0.4375 0 0
0.4375 0 0
0.03125 0 0
0.4375 0 0
0.03125 0 0
0.3125 0 0
0.3125 0 0
0.4375 0 0
0.4375 0 0
0.03125 0 0
0.03125 0 0
0.3125 0 0
0.25 0 0
0.03125 0 0
0.3125 0 0
0.25 0 0
0.03125 0 0
0.3125 0 0
0.3125 0 0
0.03125 0 0
0.3125 0 0
0.25 0 0
0.03125 0 0
0.3125 0 0
0.3125 0 0
0.03125 0 0
0.3125 0 0
0.25 0 0
0.03125 0 0
0.3125 0 0
0.3125 0 0
0.03125 0 0
0.3125 0 0
0.3125 0 0
0.03125 0 0
0.03125 0 0
0.3125 0 0
0.25 0 0
0.03125 0 0
0.03125 0 0
0.3125 0 0
0.25 0 0
0.03125 0 0
0.03125 0 0
0.3125 0 0
0.25 0 0
0.03125 0 0
0.03125 0 0
0.3125 0 0
0.25 0 0
0.03125 0 0
0.3125 0 0
0.3125 0 0
0.03125 0 0
0.03125 0 0
0.3125 0 0
0.3125 0 0
0.03125 0 0
0.03125 0 0
0.3125 0 0
0.3125 0 0
0.03125 0 0
0.03125 0 0
0.3125 0 0
0.3125 0 0
0.03125 0 0
0.03125 0 0
0.3125 0 0
0.25 0 0
0.03125 0 0
0.3125 0 0
0.25 0 0
0.03125 0 0
0.3125 0 0
0.3125 0 0
0.03125 0 0
0.3125 0 0
0.25 0 0
0.03125 0 0
0.3125 0 0
0.3125 0 0
0.03125 0 0
0.3125 0 0
0.25 0 0
0.03125 0 0
0.3125 0 0
0.3125 0 0
0.03125 0 0
0.3125 0 0
0.3125 0 0
0.4375 0 0
0.4375 0 0
0.03125 0 0
0.4375 0 0
0.4375 0 0
0.03125 0 0
0.4375 0 0
0.4375 0 0
0.03125 0 0
0.4375 0 0
0.4375 0 0
0.03125 0 0
0.03125 0 0
0.03125 0 0
0.03125 0 0
0.03125 0 0
0.4375 0 0
0.03125 0 0
0.4375 0 0
0.03125 0 0
0.4375 0 0
0.03125 0 0
0.4375 0 0
0.03125 0 0
0.4375 0 0
0.03125 0 0
0.4375 0 0
0.03125 0 0
0.4375 0 0
0.03125 0 0
0.4375 0 0
0.03125 0 0
0.03125 0 0
0.03125 0 0
0.03125 0 0
0.03125 0 0
0.03125 0 0
0.03125 0 0
0.03125 0 0
0.03125 0 0
0.03125 0 0
0.03125 0 0
0.03125 0 0
0.03125 0 0
0.03125 0 0
0.03125 0 0
0.03125 0 0
0.03125 0 0
0.03125 0 0
0.03125 0 0
0.03125 0 0
0.03125 0 0
0.03125 0 0
0.03125 0 0
0.03125 0 0
0.03125 0 0
0.03125 0 0
0.03125 0 0
0.03125 0 0
0.03125 0 0
0.03125 0 0
0.03125 0 0
0.03125 0 0
0.03125 0 0
