# vtk DataFile Version 1.0
Cube
ASCII

DATASET POLYDATA
POINTS 74 float
8.637147 3.022142 3.165750
6.935551 4.004241 3.165750
5.816553 1.794485 1.822860
8.055393 1.794552 1.822839
10.289952 2.068895 3.165750
6.935977 1.316258 1.447381
6.935901 0.035558 0.669611
0.000039 11.126251 1.237783
5.234228 3.021665 3.165750
5.581343 6.078200 4.508640
4.461981 4.139274 4.508661
3.582290 2.066918 3.165750
4.607475 5.347863 4.884119
3.498393 5.988280 5.661889
2.700046 6.449566 5.093717
6.935275 5.968918 3.165750
9.408754 4.140040 1.822860
8.289276 6.078899 1.822839
6.934408 7.876912 3.165750
9.263198 5.348603 1.447381
10.372356 5.988888 0.669611
-2.700085 6.449633 1.237783
5.816553 1.794485 4.508640
8.055393 1.794552 4.508661
6.935977 1.316258 4.884119
6.935901 0.035558 5.661889
0.000039 11.126251 5.093717
5.581343 6.078200 1.822860
4.461981 4.139274 1.822839
4.607475 5.347863 1.447381
3.498393 5.988280 0.669611
2.700046 6.449566 1.237783
9.408754 4.140040 4.508640
8.289276 6.078899 4.508661
9.263198 5.348603 4.884119
10.372356 5.988888 5.661889
-2.700085 6.449633 5.093717
-1.701322 8.991060 9.497250
-0.000001 8.008484 9.497250
-1.354207 5.934525 8.154360
-2.473569 7.873451 8.154339
-3.353260 9.945807 9.497250
-2.328075 6.664862 7.778881
-3.437157 6.024445 7.001111
9.635596 5.563159 7.569283
1.701597 8.990583 9.497250
-1.118997 10.218240 10.840140
1.119843 10.218173 10.840161
3.354402 9.943830 9.497250
0.000427 10.696467 11.215619
0.000351 11.977167 11.993389
6.935589 0.886474 11.425217
-0.000275 6.043807 9.497250
2.473204 7.872685 8.154360
1.353726 5.933826 8.154339
-0.001142 4.135813 9.497250
2.327648 6.664122 7.778881
3.436806 6.023837 7.001111
4.235465 5.563092 7.569283
-1.354207 5.934525 10.840140
-2.473569 7.873451 10.840161
-2.328075 6.664862 11.215619
-3.437157 6.024445 11.993389
9.635596 5.563159 11.425217
-1.118997 10.218240 8.154360
1.119843 10.218173 8.154339
0.000427 10.696467 7.778881
0.000351 11.977167 7.001111
6.935589 0.886474 7.569283
2.473204 7.872685 10.840140
1.353726 5.933826 10.840161
2.327648 6.664122 11.215619
3.436806 6.023837 11.993389
4.235465 5.563092 11.425217
POINT_DATA 74
SCALARS my_scalars float
LOOKUP_TABLE default
2
1.52
1.52
1.52
1.52
1.7
1.7
1.09
2
1.52
1.52
1.52
1.7
1.7
1.09
2
1.52
1.52
1.52
1.7
1.7
1.09
1.52
1.52
1.7
1.7
1.09
1.52
1.52
1.7
1.7
1.09
1.52
1.52
1.7
1.7
1.09
2
1.52
1.52
1.52
1.52
1.7
1.7
1.09
2
1.52
1.52
1.52
1.7
1.7
1.09
2
1.52
1.52
1.52
1.7
1.7
1.09
1.52
1.52
1.7
1.7
1.09
1.52
1.52
1.7
1.7
1.09
1.52
1.52
1.7
1.7
1.09
VECTORS vectors float
0.4375 0 0
0.03125 0 0
0.03125 0 0
0.03125 0 0
0.03125 0 0
0.3125 0 0
0.3125 0 0
0.25 0 0
0.4375 0 0
0.03125 0 0
0.03125 0 0
0.03125 0 0
0.3125 0 0
0.3125 0 0
0.25 0 0
0.4375 0 0
0.03125 0 0
0.03125 0 0
0.03125 0 0
0.3125 0 0
0.3125 0 0
0.25 0 0
0.03125 0 0
0.03125 0 0
0.3125 0 0
0.3125 0 0
0.25 0 0
0.03125 0 0
0.03125 0 0
0.3125 0 0
0.3125 0 0
0.25 0 0
0.03125 0 0
0.03125 0 0
0.3125 0 0
0.3125 0 0
0.25 0 0
0.4375 0 0
0.03125 0 0
0.03125 0 0
0.03125 0 0
0.03125 0 0
0.3125 0 0
0.3125 0 0
0.25 0 0
0.4375 0 0
0.03125 0 0
0.03125 0 0
0.03125 0 0
0.3125 0 0
0.3125 0 0
0.25 0 0
0.4375 0 0
0.03125 0 0
0.03125 0 0
0.03125 0 0
0.3125 0 0
0.3125 0 0
0.25 0 0
0.03125 0 0
0.03125 0 0
0.3125 0 0
0.3125 0 0
0.25 0 0
0.03125 0 0
0.03125 0 0
0.3125 0 0
0.3125 0 0
0.25 0 0
0.03125 0 0
0.03125 0 0
0.3125 0 0
0.3125 0 0
0.25 0 0
